<?xml version="1.0"?>
<VTKFile type="UnstructuredGrid"  version="0.1"  >
<UnstructuredGrid>
<Piece  NumberOfPoints="841" NumberOfCells="1600">
<Points>
<DataArray  type="Float32"  NumberOfComponents="3"  format="ascii">-1 0 0  -0.998618 -0.0525588 0  -0.993884 -0.110432 0  -0.984784 -0.173785 0  -0.970143 -0.242536 0  -0.948683 -0.316228 0  -0.919145 -0.393919 0  -0.880471 -0.4741 0  -0.83205 -0.5547 0  -0.773957 -0.633238 0  -0.707107 -0.707107 0  -0.633238 -0.773957 0  -0.5547 -0.83205 0  -0.4741 -0.880471 0  -0.393919 -0.919145 0  -0.316228 -0.948683 0  -0.242536 -0.970143 0  -0.173785 -0.984784 0  -0.110432 -0.993884 0  -0.0525588 -0.998618 0  0 -1 0  -0.998618 0.0525588 0  -0.9 0 0  -0.898447 -0.0528498 0  -0.89305 -0.111631 0  -0.882523 -0.176505 0  -0.865372 -0.247249 0  -0.840011 -0.323081 0  -0.804984 -0.402492 0  -0.759295 -0.483188 0  -0.702782 -0.562226 0  -0.636396 -0.636396 0  -0.562226 -0.702782 0  -0.483188 -0.759295 0  -0.402492 -0.804984 0  -0.323081 -0.840011 0  -0.247249 -0.865372 0  -0.176505 -0.882523 0  -0.111631 -0.89305 0  -0.0528498 -0.898447 0  -5.55112e-17 -0.9 0  0.0525588 -0.998618 0  -0.993884 0.110432 0  -0.898447 0.0528498 0  -0.8 0 0  -0.798228 -0.0532152 0  -0.79196 -0.113137 0  -0.779513 -0.179888 0  -0.758947 -0.252982 0  -0.728293 -0.331042 0  -0.685994 -0.411597 0  -0.631482 -0.491152 0  -0.565685 -0.565685 0  -0.491152 -0.631482 0  -0.411597 -0.685994 0  -0.331042 -0.728293 0  -0.252982 -0.758947 0  -0.179888 -0.779513 0  -0.113137 -0.79196 0  -0.0532152 -0.798228 0  0 -0.8 0  0.0528498 -0.898447 0  0.110432 -0.993884 0  -0.984784 0.173785 0  -0.89305 0.111631 0  -0.798228 0.0532152 0  -0.7 0 0  -0.697938 -0.0536875 0  -0.690476 -0.115079 0  -0.675335 -0.184182 0  -0.649934 -0.259973 0  -0.61191 -0.33995 0  -0.56 -0.42 0  -0.494975 -0.494975 0  -0.42 -0.56 0  -0.33995 -0.61191 0  -0.259973 -0.649934 0  -0.184182 -0.675335 0  -0.115079 -0.690476 0  -0.0536875 -0.697938 0  0 -0.7 0  0.0532152 -0.798228 0  0.111631 -0.89305 0  0.173785 -0.984784 0  -0.970143 0.242536 0  -0.882523 0.176505 0  -0.79196 0.113137 0  -0.697938 0.0536875 0  -0.6 0 0  -0.597536 -0.0543214 0  -0.588348 -0.11767 0  -0.56921 -0.189737 0  -0.536656 -0.268328 0  -0.48824 -0.348743 0  -0.424264 -0.424264 0  -0.348743 -0.48824 0  -0.268328 -0.536656 0  -0.189737 -0.56921 0  -0.11767 -0.588348 0  -0.0543214 -0.597536 0  5.55112e-17 -0.6 0  0.0536875 -0.697938 0  0.113137 -0.79196 0  0.176505 -0.882523 0  0.242536 -0.970143 0  -0.948683 0.316228 0  -0.865372 0.247249 0  -0.779513 0.179888 0  -0.690476 0.115079 0  -0.597536 0.0543214 0  -0.5 0 0  -0.496942 -0.0552158 0  -0.485071 -0.121268 0  -0.459573 -0.19696 0  -0.416025 -0.27735 0  -0.353553 -0.353553 0  -0.27735 -0.416025 0  -0.19696 -0.459573 0  -0.121268 -0.485071 0  -0.0552158 -0.496942 0  0 -0.5 0  0.0543214 -0.597536 0  0.115079 -0.690476 0  0.179888 -0.779513 0  0.247249 -0.865372 0  0.316228 -0.948683 0  -0.919145 0.393919 0  -0.840011 0.323081 0  -0.758947 0.252982 0  -0.675335 0.184182 0  -0.588348 0.11767 0  -0.496942 0.0552158 0  -0.4 0 0  -0.39598 -0.0565685 0  -0.379473 -0.126491 0  -0.342997 -0.205798 0  -0.282843 -0.282843 0  -0.205798 -0.342997 0  -0.126491 -0.379473 0  -0.0565685 -0.39598 0  -5.55112e-17 -0.4 0  0.0552158 -0.496942 0  0.11767 -0.588348 0  0.184182 -0.675335 0  0.252982 -0.758947 0  0.323081 -0.840011 0  0.393919 -0.919145 0  -0.880471 0.4741 0  -0.804984 0.402492 0  -0.728293 0.331042 0  -0.649934 0.259973 0  -0.56921 0.189737 0  -0.485071 0.121268 0  -0.39598 0.0565685 0  -0.3 0 0  -0.294174 -0.0588348 0  -0.268328 -0.134164 0  -0.212132 -0.212132 0  -0.134164 -0.268328 0  -0.0588348 -0.294174 0  0 -0.3 0  0.0565685 -0.39598 0  0.121268 -0.485071 0  0.189737 -0.56921 0  0.259973 -0.649934 0  0.331042 -0.728293 0  0.402492 -0.804984 0  0.4741 -0.880471 0  -0.83205 0.5547 0  -0.759295 0.483188 0  -0.685994 0.411597 0  -0.61191 0.33995 0  -0.536656 0.268328 0  -0.459573 0.19696 0  -0.379473 0.126491 0  -0.294174 0.0588348 0  -0.2 0 0  -0.189737 -0.0632456 0  -0.141421 -0.141421 0  -0.0632456 -0.189737 0  0 -0.2 0  0.0588348 -0.294174 0  0.126491 -0.379473 0  0.19696 -0.459573 0  0.268328 -0.536656 0  0.33995 -0.61191 0  0.411597 -0.685994 0  0.483188 -0.759295 0  0.5547 -0.83205 0  -0.773957 0.633238 0  -0.702782 0.562226 0  -0.631482 0.491152 0  -0.56 0.42 0  -0.48824 0.348743 0  -0.416025 0.27735 0  -0.342997 0.205798 0  -0.268328 0.134164 0  -0.189737 0.0632456 0  -0.1 0 0  -0.0707107 -0.0707107 0  5.55112e-17 -0.1 0  0.0632456 -0.189737 0  0.134164 -0.268328 0  0.205798 -0.342997 0  0.27735 -0.416025 0  0.348743 -0.48824 0  0.42 -0.56 0  0.491152 -0.631482 0  0.562226 -0.702782 0  0.633238 -0.773957 0  -0.707107 0.707107 0  -0.636396 0.636396 0  -0.565685 0.565685 0  -0.494975 0.494975 0  -0.424264 0.424264 0  -0.353553 0.353553 0  -0.282843 0.282843 0  -0.212132 0.212132 0  -0.141421 0.141421 0  -0.0707107 0.0707107 0  0 0 0  0.0707107 -0.0707107 0  0.141421 -0.141421 0  0.212132 -0.212132 0  0.282843 -0.282843 0  0.353553 -0.353553 0  0.424264 -0.424264 0  0.494975 -0.494975 0  0.565685 -0.565685 0  0.636396 -0.636396 0  0.707107 -0.707107 0  -0.633238 0.773957 0  -0.562226 0.702782 0  -0.491152 0.631482 0  -0.42 0.56 0  -0.348743 0.48824 0  -0.27735 0.416025 0  -0.205798 0.342997 0  -0.134164 0.268328 0  -0.0632456 0.189737 0  5.55112e-17 0.1 0  0.0707107 0.0707107 0  0.1 0 0  0.189737 -0.0632456 0  0.268328 -0.134164 0  0.342997 -0.205798 0  0.416025 -0.27735 0  0.48824 -0.348743 0  0.56 -0.42 0  0.631482 -0.491152 0  0.702782 -0.562226 0  0.773957 -0.633238 0  -0.5547 0.83205 0  -0.483188 0.759295 0  -0.411597 0.685994 0  -0.33995 0.61191 0  -0.268328 0.536656 0  -0.19696 0.459573 0  -0.126491 0.379473 0  -0.0588348 0.294174 0  0 0.2 0  0.0632456 0.189737 0  0.141421 0.141421 0  0.189737 0.0632456 0  0.2 0 0  0.294174 -0.0588348 0  0.379473 -0.126491 0  0.459573 -0.19696 0  0.536656 -0.268328 0  0.61191 -0.33995 0  0.685994 -0.411597 0  0.759295 -0.483188 0  0.83205 -0.5547 0  -0.4741 0.880471 0  -0.402492 0.804984 0  -0.331042 0.728293 0  -0.259973 0.649934 0  -0.189737 0.56921 0  -0.121268 0.485071 0  -0.0565685 0.39598 0  0 0.3 0  0.0588348 0.294174 0  0.134164 0.268328 0  0.212132 0.212132 0  0.268328 0.134164 0  0.294174 0.0588348 0  0.3 0 0  0.39598 -0.0565685 0  0.485071 -0.121268 0  0.56921 -0.189737 0  0.649934 -0.259973 0  0.728293 -0.331042 0  0.804984 -0.402492 0  0.880471 -0.4741 0  -0.393919 0.919145 0  -0.323081 0.840011 0  -0.252982 0.758947 0  -0.184182 0.675335 0  -0.11767 0.588348 0  -0.0552158 0.496942 0  -5.55112e-17 0.4 0  0.0565685 0.39598 0  0.126491 0.379473 0  0.205798 0.342997 0  0.282843 0.282843 0  0.342997 0.205798 0  0.379473 0.126491 0  0.39598 0.0565685 0  0.4 0 0  0.496942 -0.0552158 0  0.588348 -0.11767 0  0.675335 -0.184182 0  0.758947 -0.252982 0  0.840011 -0.323081 0  0.919145 -0.393919 0  -0.316228 0.948683 0  -0.247249 0.865372 0  -0.179888 0.779513 0  -0.115079 0.690476 0  -0.0543214 0.597536 0  0 0.5 0  0.0552158 0.496942 0  0.121268 0.485071 0  0.19696 0.459573 0  0.27735 0.416025 0  0.353553 0.353553 0  0.416025 0.27735 0  0.459573 0.19696 0  0.485071 0.121268 0  0.496942 0.0552158 0  0.5 0 0  0.597536 -0.0543214 0  0.690476 -0.115079 0  0.779513 -0.179888 0  0.865372 -0.247249 0  0.948683 -0.316228 0  -0.242536 0.970143 0  -0.176505 0.882523 0  -0.113137 0.79196 0  -0.0536875 0.697938 0  5.55112e-17 0.6 0  0.0543214 0.597536 0  0.11767 0.588348 0  0.189737 0.56921 0  0.268328 0.536656 0  0.348743 0.48824 0  0.424264 0.424264 0  0.48824 0.348743 0  0.536656 0.268328 0  0.56921 0.189737 0  0.588348 0.11767 0  0.597536 0.0543214 0  0.6 0 0  0.697938 -0.0536875 0  0.79196 -0.113137 0  0.882523 -0.176505 0  0.970143 -0.242536 0  -0.173785 0.984784 0  -0.111631 0.89305 0  -0.0532152 0.798228 0  0 0.7 0  0.0536875 0.697938 0  0.115079 0.690476 0  0.184182 0.675335 0  0.259973 0.649934 0  0.33995 0.61191 0  0.42 0.56 0  0.494975 0.494975 0  0.56 0.42 0  0.61191 0.33995 0  0.649934 0.259973 0  0.675335 0.184182 0  0.690476 0.115079 0  0.697938 0.0536875 0  0.7 0 0  0.798228 -0.0532152 0  0.89305 -0.111631 0  0.984784 -0.173785 0  -0.110432 0.993884 0  -0.0528498 0.898447 0  0 0.8 0  0.0532152 0.798228 0  0.113137 0.79196 0  0.179888 0.779513 0  0.252982 0.758947 0  0.331042 0.728293 0  0.411597 0.685994 0  0.491152 0.631482 0  0.565685 0.565685 0  0.631482 0.491152 0  0.685994 0.411597 0  0.728293 0.331042 0  0.758947 0.252982 0  0.779513 0.179888 0  0.79196 0.113137 0  0.798228 0.0532152 0  0.8 0 0  0.898447 -0.0528498 0  0.993884 -0.110432 0  -0.0525588 0.998618 0  -5.55112e-17 0.9 0  0.0528498 0.898447 0  0.111631 0.89305 0  0.176505 0.882523 0  0.247249 0.865372 0  0.323081 0.840011 0  0.402492 0.804984 0  0.483188 0.759295 0  0.562226 0.702782 0  0.636396 0.636396 0  0.702782 0.562226 0  0.759295 0.483188 0  0.804984 0.402492 0  0.840011 0.323081 0  0.865372 0.247249 0  0.882523 0.176505 0  0.89305 0.111631 0  0.898447 0.0528498 0  0.9 0 0  0.998618 -0.0525588 0  0 1 0  0.0525588 0.998618 0  0.110432 0.993884 0  0.173785 0.984784 0  0.242536 0.970143 0  0.316228 0.948683 0  0.393919 0.919145 0  0.4741 0.880471 0  0.5547 0.83205 0  0.633238 0.773957 0  0.707107 0.707107 0  0.773957 0.633238 0  0.83205 0.5547 0  0.880471 0.4741 0  0.919145 0.393919 0  0.948683 0.316228 0  0.970143 0.242536 0  0.984784 0.173785 0  0.993884 0.110432 0  0.998618 0.0525588 0  1 0 0  -0.95 0 0  -0.948537 -0.0526965 0  -0.943493 -0.110999 0  -0.933729 -0.175074 0  -0.917923 -0.24478 0  -0.894655 -0.31952 0  -0.862561 -0.398105 0  -0.82059 -0.478677 0  -0.768299 -0.558763 0  -0.706129 -0.635516 0  -0.635516 -0.706129 0  -0.558763 -0.768299 0  -0.478677 -0.82059 0  -0.398105 -0.862561 0  -0.31952 -0.894655 0  -0.24478 -0.917923 0  -0.175074 -0.933729 0  -0.110999 -0.943493 0  -0.0526965 -0.948537 0  0 -0.95 0  -0.948537 0.0526965 0  -0.85 0 0  -0.848345 -0.0530215 0  -0.842544 -0.112339 0  -0.831132 -0.1781 0  -0.812412 -0.249973 0  -0.784615 -0.326923 0  -0.746211 -0.407024 0  -0.696347 -0.487443
[...]
<PointData  Scalars="u"> 
<DataArray  type="Float32"  Name="u"  format="ascii">0.000000e+00  0.000000e+00  0.000000e+00  0.000000e+00  0.000000e+00  0.000000e+00  0.000000e+00  0.000000e+00  0.000000e+00  0.000000e+00  0.000000e+00  0.000000e+00  0.000000e+00  0.000000e+00  0.000000e+00  0.000000e+00  0.000000e+00  0.000000e+00  0.000000e+00  0.000000e+00  0.000000e+00  0.000000e+00  7.393423e-04  7.352586e-04  7.328870e-04  7.318327e-04  7.327757e-04  7.363901e-04  7.434616e-04  7.547892e-04  7.710535e-04  7.926838e-04  8.197944e-04  8.521846e-04  8.893455e-04  9.304892e-04  9.746409e-04  1.020743e-03  1.067883e-03  1.114128e-03  1.166169e-03  0.000000e+00  0.000000e+00  7.442162e-04  1.560687e-03  1.551697e-03  1.546545e-03  1.545408e-03  1.550221e-03  1.563128e-03  1.586494e-03  1.622476e-03  1.672528e-03  1.737072e-03  1.815426e-03  1.905853e-03  2.005784e-03  2.112223e-03  2.222385e-03  2.332453e-03  2.450655e-03  1.223481e-03  0.000000e+00  0.000000e+00  7.508381e-04  1.572381e-03  2.478961e-03  2.463620e-03  2.455801e-03  2.457253e-03  2.472662e-03  2.507286e-03  2.566369e-03  2.653672e-03  2.770316e-03  2.914415e-03  3.081328e-03  3.264571e-03  3.457421e-03  3.652131e-03  3.856944e-03  2.582773e-03  1.288051e-03  0.000000e+00  0.000000e+00  7.601686e-04  1.589186e-03  2.500409e-03  3.512841e-03  3.489260e-03  3.480087e-03  3.491007e-03  3.532876e-03  3.617232e-03  3.753095e-03  3.943117e-03  4.182250e-03  4.458802e-03  4.758077e-03  5.063967e-03  5.381705e-03  4.089606e-03  2.741412e-03  1.370446e-03  0.000000e+00  0.000000e+00  7.729324e-04  1.613539e-03  2.533085e-03  3.548636e-03  4.686216e-03  4.652178e-03  4.646472e-03  4.685036e-03  4.792825e-03  4.991177e-03  5.286267e-03  5.664124e-03  6.095714e-03  6.546300e-03  7.009635e-03  5.749597e-03  4.383297e-03  2.948094e-03  1.475063e-03  0.000000e+00  0.000000e+00  7.900896e-04  1.647874e-03  2.582433e-03  3.607131e-03  4.743968e-03  6.030202e-03  5.983878e-03  5.997604e-03  6.116067e-03  6.392244e-03  6.841079e-03  7.421643e-03  8.057504e-03  8.705849e-03  7.558836e-03  6.239149e-03  4.779441e-03  3.218870e-03  1.609189e-03  0.000000e+00  0.000000e+00  8.127566e-04  1.695251e-03  2.654616e-03  3.700329e-03  4.847329e-03  6.123727e-03  7.586204e-03  7.529821e-03  7.620922e-03  7.984779e-03  8.664995e-03  9.525473e-03  1.040552e-02  9.497783e-03  8.338042e-03  6.930715e-03  5.319317e-03  3.577657e-03  1.782440e-03  0.000000e+00  0.000000e+00  8.421248e-04  1.759105e-03  2.757159e-03  3.842761e-03  5.023738e-03  6.313460e-03  7.744833e-03  9.410637e-03  9.372707e-03  9.801102e-03  1.083271e-02  1.200216e-02  1.152570e-02  1.071955e-02  9.505870e-03  7.919765e-03  6.063543e-03  4.056640e-03  2.007355e-03  0.000000e+00  0.000000e+00  8.792891e-04  1.842783e-03  2.897866e-03  4.050982e-03  5.306606e-03  6.666343e-03  8.130700e-03  9.718175e-03  1.158319e-02  1.186608e-02  1.333976e-02  1.359328e-02  1.345636e-02  1.268105e-02  1.126753e-02  9.344153e-03  7.093983e-03  4.697537e-03  2.299505e-03  0.000000e+00  0.000000e+00  9.250517e-04  1.948847e-03  3.082983e-03  4.338971e-03  5.726708e-03  7.251531e-03  8.908717e-03  1.067303e-02  1.248933e-02  1.422148e-02  1.569500e-02  1.659233e-02  1.665436e-02  1.573006e-02  1.388977e-02  1.138174e-02  8.513488e-03  5.550590e-03  2.676867e-03  0.000000e+00  0.000000e+00  9.797893e-04  2.078494e-03  3.315317e-03  4.712520e-03  6.295204e-03  8.089735e-03  1.011724e-02  1.236299e-02  1.449517e-02  1.682342e-02  1.747457e-02  1.999671e-02  2.091486e-02  2.005406e-02  1.763663e-02  1.423259e-02  1.043731e-02  6.669826e-03  3.157986e-03  0.000000e+00  0.000000e+00  1.043408e-03  2.231301e-03  3.593293e-03  5.166215e-03  6.994037e-03  9.120723e-03  1.154931e-02  1.405395e-02  1.616542e-02  1.957043e-02  2.183491e-02  2.161299e-02  2.482653e-02  2.530630e-02  2.265785e-02  1.808415e-02  1.297449e-02  8.103206e-03  3.758547e-03  0.000000e+00  0.000000e+00  1.115333e-03  2.405206e-03  3.911036e-03  5.684252e-03  7.781485e-03  1.023346e-02  1.295026e-02  1.469373e-02  1.762703e-02  2.206899e-02  2.647075e-02  2.798775e-02  2.709019e-02  3.053306e-02  2.888833e-02  2.308509e-02  1.620328e-02  9.878003e-03  4.486464e-03  0.000000e+00  0.000000e+00  1.194540e-03  2.596745e-03  4.259451e-03  6.245048e-03  8.605836e-03  1.135018e-02  1.271853e-02  1.485519e-02  1.830143e-02  2.359666e-02  3.040154e-02  3.580481e-02  3.665039e-02  3.448171e-02  3.588597e-02  2.930539e-02  2.014711e-02  1.198412e-02  5.336433e-03  0.000000e+00  0.000000e+00  1.279649e-03  2.801541e-03  4.628344e-03  6.823587e-03  9.451284e-03  1.046758e-02  1.194196e-02  1.420602e-02  1.774172e-02  2.324907e-02  3.147407e-02  4.152488e-02  4.800020e-02  4.706384e-02  4.237178e-02  3.650774e-02  2.472988e-02  1.436047e-02  6.285739e-03  0.000000e+00  0.000000e+00  1.369036e-03  3.015223e-03  5.005086e-03  7.426912e-03  8.138407e-03  9.107890e-03  1.051425e-02  1.260147e-02  1.575956e-02  2.058906e-02  2.798729e-02  3.861925e-02  4.956881e-02  5.385317e-02  5.018980e-02  4.357761e-02  2.965852e-02  1.688800e-02  7.293506e-03  0.000000e+00  0.000000e+00  1.461207e-03  3.231221e-03  5.404215e-03  5.866704e-03  6.463581e-03  7.288640e-03  8.450254e-03  1.011839e-02  1.254686e-02  1.609629e-02  2.122552e-02  2.829454e-02  3.647267e-02  4.237369e-02  4.295613e-02  3.938351e-02  3.440457e-02  1.937355e-02  8.306771e-03  0.000000e+00  0.000000e+00  1.552595e-03  3.465124e-03  3.732015e-03  4.058877e-03  4.494028e-03  5.080149e-03  5.883223e-03  6.998113e-03  8.555228e-03  1.071427e-02  1.361934e-02  1.727155e-02  2.129219e-02  2.471038e-02  2.636392e-02  2.592770e-02  2.417195e-02  2.177629e-02  9.249361e-03  0.000000e+00  0.000000e+00  1.656259e-03  1.773048e-03  1.906889e-03  2.080881e-03  2.307084e-03  2.605303e-03  3.003078e-03  3.537837e-03  4.256669e-03  5.209183e-03  6.425013e-03  7.870366e-03  9.400658e-03  1.075991e-02  1.166708e-02  1.196011e-02  1.168640e-02  1.108088e-02  1.020573e-02  0.000000e+00  0.000000e+00  0.000000e+00  0.000000e+00  0.000000e+00  0.000000e+00  0.000000e+00  0.000000e+00  0.000000e+00  0.000000e+00  0.000000e+00  0.000000e+00  0.000000e+00  0.000000e+00  0.000000e+00  0.000000e+00  0.000000e+00  0.000000e+00  0.000000e+00  0.000000e+00  0.000000e+00  0.000000e+00  3.663211e-04  3.648515e-04  3.630445e-04  3.618460e-04  3.613490e-04  3.618189e-04  3.635803e-04  3.670472e-04  3.726978e-04  3.809977e-04  3.922814e-04  4.066431e-04  4.238962e-04  4.436215e-04  4.652682e-04  4.882527e-04  5.120373e-04  5.359927e-04  5.606012e-04  5.778008e-04  3.677748e-04  1.145969e-03  1.140294e-03  1.135586e-03  1.133428e-03  1.134715e-03  1.140723e-03  1.152956e-03  1.173036e-03  1.202417e-03  1.242028e-03  1.291974e-03  1.351457e-03  1.418933e-03  1.492424e-03  1.569870e-03  1.649208e-03  1.729731e-03  1.802747e-03  5.962889e-04  3.704544e-04  1.152928e-03  2.014954e-03  2.003915e-03  1.995985e-03  1.994361e-03  2.001679e-03  2.021421e-03  2.057452e-03  2.113331e-03  2.191296e-03  2.291426e-03  2.411453e-03  2.547300e-03  2.694055e-03  2.846699e-03  3.002258e-03  3.147936e-03  1.883427e-03  6.267996e-04  3.741794e-04  1.163708e-03  2.029648e-03  2.989957e-03  2.971938e-03  2.961093e-03  2.964032e-03  2.987352e-03  3.039254e-03  3.127730e-03  3.257909e-03  3.429623e-03  3.636974e-03  3.870204e-03  4.118208e-03  4.372710e-03  4.613624e-03  3.311628e-03  1.992590e-03  6.640312e-04  3.792538e-04  1.179069e-03  2.052900e-03  3.015850e-03  4.092133e-03  4.065108e-03  4.053492e-03  4.071599e-03  4.135338e-03  4.262229e-03  4.464021e-03  4.739400e-03  5.073136e-03  5.442208e-03  5.825975e-03  6.190796e-03  4.889298e-03  3.533889e-03  2.131061e-03  7.108239e-04  3.860005e-04  1.200452e-03  2.087268e-03  3.058900e-03  4.134791e-03  5.348780e-03  5.310556e-03  5.306023e-03  5.368827e-03  5.536619e-03  5.837530e-03  6.265722e-03  6.780099e-03  7.330673e-03  7.854860e-03  6.617471e-03  5.274576e-03  3.825686e-03  2.309690e-03  7.697213e-04  3.948478e-04  1.229587e-03  2.136695e-03  3.125667e-03  4.210991e-03  5.417809e-03  6.795740e-03  6.745438e-03  6.775805e-03  6.974828e-03  7.414301e-03  8.070335e-03  8.830235e-03  9.556793e-03  8.485075e-03  7.241324e-03  5.802641e-03  4.215511e-03  2.541958e-03  8.442678e-04  4.063400e-04  1.268565e-03  2.205980e-03  3.225633e-03  4.336688e-03  5.554255e-03  6.909877e-03  8.480992e-03  8.426991e-03  8.607746e-03  9.241932e-03  1.023041e-02  1.121238e-02  1.046329e-02  9.467634e-03  8.144236e-03  6.539682e-03  4.741488e-03  2.846219e-03  9.391643e-04  4.211236e-04  1.319704e-03  2.300617e-03  3.370167e-03  4.534052e-03  5.797857e-03  7.171091e-03  8.685557e-03  1.046963e-02  1.049344e-02  1.138765e-02  1.269372e-02  1.250750e-02  1.200971e-02  1.098834e-02  9.471676e-03  7.577556e-03  5.455743e-03  3.246583e-03  1.060564e-03  4.398694e-04  1.385222e-03  2.425949e-03  3.570869e-03  4.827313e-03  6.199104e-03  7.683367e-03  9.266886e-03  1.093554e-02  1.284614e-02  1.383817e-02  1.461022e-02  1.497651e-02  1.456071e-02  1.333426e-02  1.142040e-02  9.039081e-03  6.425397e-03  3.773109e-03  1.216169e-03  4.631346e-04  1.466763e-03  2.585850e-03  3.836095e-03  5.234068e-03  6.795711e-03  8.533040e-03  1.044707e-02  1.250165e-02  1.443443e-02  1.576524e-02  1.782147e-02  1.870615e-02  1.837409e-02  1.679209e-02  1.422020e-02  1.107148e-02  7.729368e-03  4.460192e-03  1.414904e-03  4.912112e-04  1.564953e-03  2.781438e-03  4.167382e-03  5.754921e-03  7.580752e-03  9.677732e-03  1.202896e-02  1.432561e-02  1.662860e-02  1.933610e-02  1.945948e-02  2.224746e-02  2.303332e-02  2.146121e-02  1.807974e-02  1.382732e-02  9.448756e-03  5.342216e-03  1.665909e-03  5.240334e-04  1.679175e-03  3.010542e-03  4.558147e-03  6.370669e-03  8.497920e-03  1.095392e-02  1.353590e-02  1.544485e-02  1.879006e-02  2.283016e-02  2.480051e-02  2.423715e-02  2.740973e-02  2.708256e-02  2.312887e-02  1.744038e-02  1.165121e-02  6.446108e-03  1.976702e-03  5.611900e-04  1.807659e-03  3.268102e-03  4.995436e-03  7.048949e-03  9.472848e-03  1.216989e-02  1.368207e-02  1.623032e-02  2.033520e-02  2.589252e-02  3.075398e-02  3.220382e-02  3.061573e-02  3.296570e-02  2.935890e-02  2.200497e-02  1.437183e-02  7.781318e-03  2.350591e-03  6.020168e-04  1.947783e-03  3.547252e-03  5.462914e-03  7.757696e-03  1.040955e-02  1.154900e-02  1.334345e-02  1.617882e-02  2.065576e-02  2.731140e-02  3.553459e-02  4.163571e-02  4.206979e-02  3.839064e-02  3.638720e-02  2.752003e-02  1.759122e-02  9.329101e-03  2.783824e-03  6.457040e-04  2.096510e-03  3.840233e-03  5.947289e-03  8.440460e-03  9.253196e-03  1.046211e-02  1.226215e-02  1.501317e-02  1.926709e-02  2.580385e-02  3.530207e-02  4.602472e-02  5.163330e-02  4.932819e-02  4.334142e-02  3.364877e-02  2.119743e-02  1.103449e-02  3.263452e-03  6.914087e-04  2.250471e-03  4.142213e-03  6.412300e-03  6.954990e-03  7.727824e-03  8.816545e-03  1.039169e-02  1.271466e-02  1.618101e-02  2.135962e-02  2.892443e-02  3.868301e-02  4.706688e-02  4.896346e-02  4.485903e-02  3.927215e-02  2.492645e-02  1.280192e-02  3.767452e-03  7.380107e-04  2.408562e-03  4.428836e-03  4.757529e-03  5.212092e-03  5.823739e-03  6.666464e-03  7.847490e-03  9.524224e-03  1.191451e-02  1.528469e-02  1.986897e-02  2.556697e-02  3.122742e-02  3.452406e-02  3.414679e-02  3.127814e-02  2.807982e-02  1.452354e-02  4.264780e-03  7.864878e-04  2.553647e-03  2.717441e-03  2.942883e-03  3.235123e-03  3.622200e-03  4.141673e-03  4.847118e-03  5.811630e-03  7.126050e-03  8.880435e-03  1.111189e-02  1.370920e-02  1.629930e-02  1.824671e-02  1.898617e-02  1.850109e-02  1.725560e-02  1.592282e-02  4.742706e-03  8.206250e-04  8.584319e-04  9.216804e-04  1.000402e-03  1.101680e-03  1.232744e-03  1.403864e-03  1.628941e-03  1.926023e-03  2.316159e-03  2.818122e-03  3.436061e-03  4.140390e-03  4.851558e-03  5.446628e-03  5.803842e-03  5.867501e-03  5.684145e-03  5.340544e-03  5.056691e-03  </DataArray> 
</PointData> 
</Piece>
</UnstructuredGrid>
</VTKFile>